file 1165022 1303843777                                         
version 2
run Eight-0-20110329-15:17:54-9094
attr configname Eight
attr datetime 20110329-15:17:54
attr experiment Eight
attr inifile omnetpp.ini
attr iterationvars ""
attr iterationvars2 $repetition=0
attr measurement ""
attr network sim
attr processid 9094
attr repetition 0
attr replication #0
attr resultdir results
attr runnumber 0
attr seedset 0
vector 2  sim.host[0].batteryStats  capacity(relative)  ETV
2	1621 56070 0 252232 0 499.75 2000 0.5336 0.666666666667 1200.2646703042 723.28033001344
vector 8  sim.host[1].batteryStats  capacity(relative)  ETV
8	57691 56070 0 252233 0 499.75 2000 0.5336 0.666666666667 1200.2649243589 723.28066782299
vector 14  sim.host[2].batteryStats  capacity(relative)  ETV
14	113761 58070 0 252234 0 499.75 2000 0.5336 0.666666666667 1200.2647612331 723.28045104453
vector 20  sim.host[3].batteryStats  capacity(relative)  ETV
20	171831 58070 0 252235 0 499.75 2000 0.5336 0.666666666667 1200.2646699964 723.28032959587
vector 26  sim.host[4].batteryStats  capacity(relative)  ETV
26	229901 58070 0 252236 0 499.75 2000 0.5336 0.666666666667 1200.2646699964 723.28032959587
vector 32  sim.host[5].batteryStats  capacity(relative)  ETV
32	287971 58070 0 252237 0 499.75 2000 0.5336 0.666666666667 1200.2646699964 723.28032959587
vector 38  sim.host[6].batteryStats  capacity(relative)  ETV
38	346041 58070 0 252238 0 499.75 2000 0.5336 0.666666666667 1200.2648626404 723.28058607215
vector 44  sim.host[7].batteryStats  capacity(relative)  ETV
44	404111 58070 0 252239 0 499.75 2000 0.5336 0.666666666667 1200.2646703042 723.28033001344
vector 50  sim.host[8].batteryStats  capacity(relative)  ETV
50	462181 58070 0 252240 0 499.75 2000 0.5336 0.666666666667 1200.2649255467 723.28066940464
vector 56  sim.host[9].batteryStats  capacity(relative)  ETV
56	520251 58070 0 252241 0 499.75 2000 0.5336 0.666666666667 1200.264665053 723.28032302151
vector 62  sim.host[10].batteryStats  capacity(relative)  ETV
62	578321 58070 0 252242 0 499.75 2000 0.5336 0.666666666667 1200.2647162689 723.28039120049
vector 68  sim.host[11].batteryStats  capacity(relative)  ETV
68	636391 58070 0 252243 0 499.75 2000 0.5336 0.666666666667 1200.2646699964 723.28032959587
vector 74  sim.host[12].batteryStats  capacity(relative)  ETV
74	694461 58070 0 252244 0 499.75 2000 0.5336 0.666666666667 1200.2649242901 723.28066773139
vector 80  sim.host[13].batteryStats  capacity(relative)  ETV
80	752531 58070 0 252245 0 499.75 2000 0.5336 0.666666666667 1200.2647162689 723.28039120049
vector 86  sim.host[14].batteryStats  capacity(relative)  ETV
86	810601 58070 0 252246 0 499.75 2000 0.5336 0.666666666667 1200.2647156406 723.28039036387
vector 92  sim.host[15].batteryStats  capacity(relative)  ETV
92	868671 58070 0 252247 0 499.75 2000 0.5336 0.666666666667 1200.2649242901 723.28066773139
vector 98  sim.host[16].batteryStats  capacity(relative)  ETV
98	926741 58070 0 252248 0 499.75 2000 0.5336 0.666666666667 1200.2649242901 723.28066773139
vector 104  sim.host[17].batteryStats  capacity(relative)  ETV
104	984811 60070 0 252249 0 499.75 2000 0.5336 0.666666666667 1200.264665053 723.28032302151
vector 110  sim.host[18].batteryStats  capacity(relative)  ETV
110	1044881 60070 0 252250 0 499.75 2000 0.5336 0.666666666667 1200.2647162689 723.28039120049
vector 116  sim.host[19].batteryStats  capacity(relative)  ETV
116	1104951 60071 0 252251 0 499.75 2000 0.5336 0.666666666667 1200.2647162689 723.28039120049
