file 613 1294785869                                             
version 2
run One-0-20100408-14:34:16-4277
attr configname One
attr datetime 20100408-14:34:16
attr experiment One
attr inifile omnetpp.ini
attr iterationvars ""
attr iterationvars2 $repetition=0
attr measurement ""
attr network sim
attr processid 4277
attr repetition 0
attr replication #0
attr resultdir results
attr runnumber 0
attr seedset 0
vector 1  sim.host[0].batteryStats  capacity  ETV
attr unit mW-s
1	413 200 0 71 0 4.8 15 3000 10800 102960 789890400
