file 664 1294785869                                             
version 2
run Two-0-20100408-14:34:15-4272
attr configname Two
attr datetime 20100408-14:34:15
attr experiment Two
attr inifile omnetpp.ini
attr iterationvars ""
attr iterationvars2 $repetition=0
attr measurement ""
attr network sim
attr processid 4272
attr repetition 0
attr replication #0
attr resultdir results
attr runnumber 0
attr seedset 0
vector 1  sim.host[0].batteryStats  capacity  ETV
attr unit mW-s
1	413 251 0 96 0 5.575 18 1080 10800 105000 763368750
