file 660 1294785869                                             
version 2
run Four-0-20100408-14:34:15-4274
attr configname Four
attr datetime 20100408-14:34:15
attr experiment Four
attr inifile omnetpp.ini
attr iterationvars ""
attr iterationvars2 $repetition=0
attr measurement ""
attr network sim
attr processid 4274
attr repetition 0
attr replication #0
attr resultdir results
attr runnumber 0
attr seedset 0
vector 1  sim.host[0].batteryStats  capacity  ETV
attr unit mW-s
1	416 244 0 96 0 5.6 18 1155 10800 106125 774084375
