file 1696 1294785869                                            
version 2
run One-0-20100408-14:34:16-4281
attr configname One
attr datetime 20100408-14:34:16
attr experiment One
attr inifile omnetpp.ini
attr iterationvars ""
attr iterationvars2 $repetition=0
attr measurement ""
attr network sim
attr processid 4281
attr repetition 0
attr replication #0
attr resultdir results
attr runnumber 0
attr seedset 0
vector 1  sim.host[0].batteryStats  capacity  ETV
attr unit mW-s
1	413 1283 0 188 0 10 103 0 10800 174225 1226486025
