file 546 1294785869                                             
version 2
run Five-0-20100408-14:34:12-4259
attr configname Five
attr datetime 20100408-14:34:12
attr experiment Five
attr inifile omnetpp.ini
attr iterationvars ""
attr iterationvars2 $repetition=0
attr measurement ""
attr network sim
attr processid 4259
attr repetition 0
attr replication #0
attr resultdir results
attr runnumber 0
attr seedset 0
vector 1  sim.host[0].batteryStats  capacity  ETV
attr unit mW-s
1	416 130 0 55 0 4.2 10 5700 10800 81780 693939600
