file 822 1294785869                                             
version 2
run Seven-0-20100408-14:34:13-4261
attr configname Seven
attr datetime 20100408-14:34:13
attr experiment Seven
attr inifile omnetpp.ini
attr iterationvars ""
attr iterationvars2 $repetition=0
attr measurement ""
attr network sim
attr processid 4261
attr repetition 0
attr replication #0
attr resultdir results
attr runnumber 0
attr seedset 0
vector 1  sim.host[0].batteryStats  capacity  ETV
attr unit mW-s
1	419 403 0 142 0 15 32 0 10800 106380 764283600
