file 2182 1294785869                                            
version 2
run Twelve-0-20100408-14:34:14-4266
attr configname Twelve
attr datetime 20100408-14:34:14
attr experiment Twelve
attr inifile omnetpp.ini
attr iterationvars ""
attr iterationvars2 $repetition=0
attr measurement ""
attr network sim
attr processid 4266
attr repetition 0
attr replication #0
attr resultdir results
attr runnumber 0
attr seedset 0
vector 1  sim.host[0].batteryStats  capacity  ETV
attr unit mW-s
1	608 365 0 67 0 15 31 0 5400 52380 187059600
vector 2  sim.host[0].batteryStats  capacity(relative)  ETV
2	973 422 0 67 0 15 31 0 0.5 4.8500017 1.6037355821001
vector 3  sim.host[0].batteryStats  estimate  ETV
attr unit mW-s
3	1395 365 0 67 0 15 31 0 5400 52380 187059600
vector 4  sim.host[0].batteryStats  estimate(relative)  ETV
4	1760 422 0 67 0 15 31 0 0.5 4.8500017 1.6037355821001
