file 636 1294785869                                             
version 2
run Nine-0-20100408-14:34:13-4263
attr configname Nine
attr datetime 20100408-14:34:13
attr experiment Nine
attr inifile omnetpp.ini
attr iterationvars ""
attr iterationvars2 $repetition=0
attr measurement ""
attr network sim
attr processid 4263
attr repetition 0
attr replication #0
attr resultdir results
attr runnumber 0
attr seedset 0
vector 1  sim.host[0].batteryStats  capacity  ETV
attr unit mW-s
1	416 220 0 112 0 9.3 16 0 10800 85500 633402000
