file 556 1294785869                                             
version 2
run Six-0-20100408-14:34:13-4260
attr configname Six
attr datetime 20100408-14:34:13
attr experiment Six
attr inifile omnetpp.ini
attr iterationvars ""
attr iterationvars2 $repetition=0
attr measurement ""
attr network sim
attr processid 4260
attr repetition 0
attr replication #0
attr resultdir results
attr runnumber 0
attr seedset 0
vector 1  sim.host[0].batteryStats  capacity  ETV
attr unit mW-s
1	413 143 0 97 0 4.2 11 5700 10800 91470 787979700
