file 716 1294785869                                             
version 2
run Ten-0-20100408-14:34:14-4264
attr configname Ten
attr datetime 20100408-14:34:14
attr experiment Ten
attr inifile omnetpp.ini
attr iterationvars ""
attr iterationvars2 $repetition=0
attr measurement ""
attr network sim
attr processid 4264
attr repetition 0
attr replication #0
attr resultdir results
attr runnumber 0
attr seedset 0
vector 1  sim.host[0].batteryStats  capacity  ETV
attr unit mW-s
1	413 303 0 391 0 9.3 20 0 10800 103740 764937000
