version 2
run config1-0-20110112-02:07:45-5620
attr configname config1
attr datetime 20110112-02:07:45
attr experiment config1
attr inifile D:/sim/omnetpp-4.1/samples/mixim-sommer/examples/traci_launchd/omnetpp.ini
attr iterationvars ""
attr iterationvars2 $repetition=0
attr measurement ""
attr network scenario
attr processid 5620
attr repetition 0
attr replication #0
attr resultdir results
attr runnumber 0
attr seedset 0

vector 1  scenario.node[0].mobility  posx  ETV
vector 2  scenario.node[0].mobility  posy  ETV
vector 3  scenario.node[0].mobility  speed  ETV
vector 4  scenario.node[0].mobility  acceleration  ETV
vector 5  scenario.node[0].mobility  co2emission  ETV
vector 7  scenario.node[1].mobility  posx  ETV
vector 8  scenario.node[1].mobility  posy  ETV
vector 9  scenario.node[1].mobility  speed  ETV
vector 10  scenario.node[1].mobility  acceleration  ETV
vector 11  scenario.node[1].mobility  co2emission  ETV
vector 13  scenario.node[2].mobility  posx  ETV
vector 14  scenario.node[2].mobility  posy  ETV
vector 15  scenario.node[2].mobility  speed  ETV
vector 16  scenario.node[2].mobility  acceleration  ETV
vector 17  scenario.node[2].mobility  co2emission  ETV
vector 19  scenario.node[3].mobility  posx  ETV
vector 20  scenario.node[3].mobility  posy  ETV
vector 21  scenario.node[3].mobility  speed  ETV
vector 22  scenario.node[3].mobility  acceleration  ETV
vector 23  scenario.node[3].mobility  co2emission  ETV
5	2	1	2.190602573362
5	3	2	2.8015511784811
5	4	3	2.9200026733404
5	5	4	1.2377347610232
5	13	5	1.3439359912864
5	76	6	1.3669134469243
5	111	7	1.5809465730269
5	112	8	1.5580443528135
5	113	9	1.7883461883306
5	121	10	0.973
4	2	1	2.0190417766571
4	3	2	1.6879727840424
4	4	3	1.2924814224243
4	5	4	-0.10115909576416
4	13	5	-0.010721206665039
4	76	6	0.0083808898925781
4	111	7	0.1753077507019
4	112	8	0.14575242996216
4	113	9	0.29849624633789
4	121	10	-0.32990598678589
3	1	0	0
3	2	1	2.0190417766571
3	3	2	3.7070145606995
3	4	3	4.9994959831238
3	5	4	4.8983368873596
3	13	5	4.8876156806946
3	76	6	4.8959965705872
3	111	7	5.0713043212891
3	112	8	5.2170567512512
3	113	9	5.5155529975891
3	121	10	5.1856470108032
2	1	0	0
2	2	1	6029.8736572266
2	3	2	6028.4459228516
2	4	3	6025.8247070313
2	5	4	6022.2895507813
2	13	5	6018.8259277344
2	76	6	6015.3698730469
2	111	7	6011.9078369141
2	112	8	6008.3218994141
2	113	9	6004.6328125
2	121	10	6000.7327880859
1	1	0	0
1	2	1	7543.0239648819
1	3	2	7541.5962305069
1	4	3	7538.9746484756
1	5	4	7535.4394922256
1	13	5	7531.9761133194
1	76	6	7528.5200586319
1	111	7	7525.0581445694
1	112	8	7521.4722070694
1	113	9	7517.7827539444
1	121	10	7513.8828516006
11	5	4	2.1329928714897
11	13	5	2.8451925495789
11	76	6	3.2985343418301
11	111	7	0.973
11	112	8	1.7314146291957
11	113	9	0.973
11	121	10	1.5198248152244
10	5	4	1.9619319438934
10	13	5	1.7396748065948
10	76	6	1.5263690948486
10	111	7	-0.17417240142822
10	112	8	0.27301454544067
10	113	9	-0.52205419540405
10	121	10	0.13474988937378
9	4	3	0
9	5	4	1.9619319438934
9	13	5	3.7016067504883
9	76	6	5.2279758453369
9	111	7	5.0538034439087
9	112	8	5.3268179893494
9	113	9	4.8047637939453
9	121	10	4.9395136833191
8	4	3	0
8	5	4	6051.4047851563
8	13	5	6050.033203125
8	76	6	6047.4456787109
8	111	7	6043.791015625
8	112	8	6040.2581787109
8	113	9	6036.5344238281
8	121	10	6033.1756591797
7	4	3	0
7	5	4	7519.8433008194
7	13	5	7518.4399805069
7	76	6	7515.7934961319
7	111	7	7512.0547266006
7	112	8	7508.4409570694
7	113	9	7504.6318750381
7	121	10	7501.1963281631
17	111	7	2.3759092681132
17	112	8	2.4956435914077
17	113	9	3.5787049295815
17	121	10	0.973
16	111	7	2.1931045055389
16	112	8	1.3965826034546
16	113	9	1.7187230587006
16	121	10	-0.38491821289063
15	76	6	0
15	111	7	2.1931045055389
15	112	8	3.5896871089935
15	113	9	5.3084101676941
15	121	10	4.9234919548035
14	76	6	0
14	111	7	6073.8104248047
14	112	8	6072.2153320313
14	113	9	6069.6044921875
14	121	10	6065.7434082031
13	76	6	0
13	111	7	7497.5400781631
13	112	8	7496.0347070694
13	113	9	7493.5713281631
13	121	10	7489.9282617569
23	121	10	2.3770107995811
22	121	10	2.1940996646881
21	113	9	0
21	121	10	2.1940996646881
20	113	9	0
20	121	10	6029.8736572266
19	113	9	0
19	121	10	7543.0239648819
